 Gaussian 09, Revision D.01,
 Gaussian 09:  ES64L-G09RevD.01 24-Apr-2013

 ------------------------------------------
 #p HFS/cc-pVQZ GFINPUT IOP(6/7=3) pop=full
 ------------------------------------------

 -------
 daniele
 -------
 Symbolic Z-matrix:
 Charge =  0 Multiplicity = 1

                         Standard orientation:
 ---------------------------------------------------------------------
 Center     Atomic      Atomic             Coordinates (Angstroms)
 Number     Number       Type             X           Y           Z
 ---------------------------------------------------------------------
      1          2           0        0.000000    0.000000    0.000000
 ---------------------------------------------------------------------

 SCF Done:  E(RS) =  -2.72327664594     A.U. after    6 cycles

 The electronic state is 1-A1G.
 Alpha  occ. eigenvalues --   -0.51543
 Alpha virt. eigenvalues --    0.38104   0.86913   0.86913   0.86913   2.44800
 Alpha virt. eigenvalues --    3.53436   3.53436   3.53436   3.53436   3.53436
 Alpha virt. eigenvalues --    4.34424   4.34424   4.34424  11.07721  11.07721

 Mulliken charges:
               1
     1  He   0.000000
 Sum of Mulliken charges =   0.00000

 Dipole moment (field-independent basis, Debye):
    X=              0.0000    Y=              0.0000    Z=              0.0000  Tot=              0.0000
 Quadrupole moment (field-independent basis, Debye-Ang):
   XX=             -1.1717   YY=             -1.1717   ZZ=             -1.1717
   XY=              0.0000   XZ=              0.0000   YZ=              0.0000

 Normal termination of Gaussian 09 at Sat Dec 10 18:14:33 2016.
