 Gaussian 09, Revision D.01,
 Gaussian 09:  ES64L-G09RevD.01 24-Apr-2013

 ------------------------------------------
 #p SPL/cc-pVQZ GFINPUT IOP(6/7=3) pop=full
 ------------------------------------------

 -------
 daniele
 -------
 Symbolic Z-matrix:
 Charge =  0 Multiplicity = 1

                         Standard orientation:
 ---------------------------------------------------------------------
 Center     Atomic      Atomic             Coordinates (Angstroms)
 Number     Number       Type             X           Y           Z
 ---------------------------------------------------------------------
      1          2           0        0.000000    0.000000    0.000000
 ---------------------------------------------------------------------

 SCF Done:  E(RS-P81) =  -2.83401647908     A.U. after    5 cycles

 The electronic state is 1-A1G.
 Alpha  occ. eigenvalues --   -0.56923
 Alpha virt. eigenvalues --    0.34835   0.82337   0.82337   0.82337   2.40015
 Alpha virt. eigenvalues --    3.48350   3.48350   3.48350   3.48350   3.48350
 Alpha virt. eigenvalues --    4.29104   4.29104   4.29104  11.02177  11.02177

 Mulliken charges:
               1
     1  He   0.000000
 Sum of Mulliken charges =   0.00000

 Dipole moment (field-independent basis, Debye):
    X=              0.0000    Y=              0.0000    Z=              0.0000  Tot=              0.0000
 Quadrupole moment (field-independent basis, Debye-Ang):
   XX=             -1.1424   YY=             -1.1424   ZZ=             -1.1424
   XY=              0.0000   XZ=              0.0000   YZ=              0.0000

 Normal termination of Gaussian 09 at Sat Dec 10 19:56:12 2016.
